<?xml version="1.0" encoding="UTF-8" standalone="no" ?>
<VTKFile byte_order="LittleEndian" type="UnstructuredGrid" version="0.1">

  <UnstructuredGrid>
    <Piece NumberOfCells="0" NumberOfPoints="545">
      <PointData>
        <DataArray Name="mass" NumberOfComponents="1" format="ascii" type="Float32">1 1 1 1 1 1 1 1 1 1 1 1 1 1 1 1 1 1 1 1 1 1 1 1 1 1 1 1 1 1 1 1 1 1 1 1 1 1 1 1 1 1 1 1 1 1 1 1 1 1 1 1 1 1 1 1 1 1 1 1 1 1 1 1 1 1 1 1 1 1 1 1 1 1 1 1 1 1 1 1 1 1 1 1 1 1 1 1 1 1 1 1 1 1 1 1 1 1 1 1 1 1 1 1 1 1 1 1 1 1 1 1 1 1 1 1 1 1 1 1 1 1 1 1 1 1 1 1 1 1 1 1 1 1 1 1 1 1 1 1 1 1 1 1 1 1 1 1 1 1 1 1 1 1 1 1 1 1 1 1 1 1 1 1 1 1 1 1 1 1 1 1 1 1 1 1 1 1 1 1 1 1 1 1 1 1 1 1 1 1 1 1 1 1 1 1 1 1 1 1 1 1 1 1 1 1 1 1 1 1 1 1 1 1 1 1 1 1 1 1 1 1 1 1 1 1 1 1 1 1 1 1 1 1 1 1 1 1 1 1 1 1 1 1 1 1 1 1 1 1 1 1 1 1 1 1 1 1 1 1 1 1 1 1 1 1 1 1 1 1 1 1 1 1 1 1 1 1 1 1 1 1 1 1 1 1 1 1 1 1 1 1 1 1 1 1 1 1 1 1 1 1 1 1 1 1 1 1 1 1 1 1 1 1 1 1 1 1 1 1 1 1 1 1 1 1 1 1 1 1 1 1 1 1 1 1 1 1 1 1 1 1 1 1 1 1 1 1 1 1 1 1 1 1 1 1 1 1 1 1 1 1 1 1 1 1 1 1 1 1 1 1 1 1 1 1 1 1 1 1 1 1 1 1 1 1 1 1 1 1 1 1 1 1 1 1 1 1 1 1 1 1 1 1 1 1 1 1 1 1 1 1 1 1 1 1 1 1 1 1 1 1 1 1 1 1 1 1 1 1 1 1 1 1 1 1 1 1 1 1 1 1 1 1 1 1 1 1 1 1 1 1 1 1 1 1 1 1 1 1 1 1 1 1 1 1 1 1 1 1 1 1 1 1 1 1 1 1 1 1 1 1 1 1 1 1 1 1 1 1 1 1 1 1 1 1 1 1 1 1 1 1 1 1 1 1 1 1 1 1 1 1 1 1 1 1 1 1 1 1 1 1 1 1 1 1 1 1 1 1 1 1 1 1 1 1 1 1 1 1 1 1 1 1 1</DataArray>
        <DataArray Name="velocity" NumberOfComponents="3" format="ascii" type="Float32">-1291.797030962661665 -1291.988057170137381 0 -35536552.109981685876846 -1530662.158276678062975 0 -51833072.268295183777809 -336844.070601910643745 0 -53057605.480124801397324 -46143.557349272166903 0 -53057560.537125214934349 46121.529517714385292 0 -51832938.119439408183098 336820.654450048110448 0 -35536403.021990075707436 1530643.326793760992587 0 -1235.205933228926142 1291.064870309490516 0 -1534322.555832014419138 -35585168.466299720108509 0 37072118.046133235096931 37117074.048528954386711 0 51833046.328903898596764 336908.539012776629534 0 53057578.527516528964043 46144.972930555093626 0 53057533.584544613957405 -46122.945096554612974 0 51832912.18014445155859 -336885.122804275131784 0 37071952.914965108036995 -37117014.24257592856884 0 -1534306.513084209989756 35585127.491900786757469 0 -341439.954224808840081 -51925406.063184186816216 0 341504.380151612684131 51925380.023891493678093 0 67824742.307521983981133 -300504682.502405762672424 0 225770992.541579455137253 -12080026.615382404997945 0 226807999.846849113702774 10681784.073887899518013 0 123981536.272261321544647 524861159.958924174308777 0 341458.002641052822582 -51925236.106285437941551 0 -341393.576949044363573 51925262.145533293485641 0 -61143.556701761772274 -53187708.792772635817528 0 61145.219139584776713 53187681.703568294644356 0 -2086.790286524391377 -62.175213649935237 0 -2896.948284784163661 -5215720.004788812249899 0 -2859.034523160689787 5215720.004580181092024 0 -2086.857639044787902 62.096779028497615 0 61075.477735142048914 -53187399.429997488856316 0 -61073.815199969772948 53187426.519157223403454 0 -15154.634857126586212 -53343718.222097963094711 0 15154.88635241337397 53343690.960733264684677 0 2077.891661108148128 126.440216287702356 0 2836.629869366771345 -5718428.280789053067565 0 2909.226224985315184 5718428.281290557235479 0 2077.957887828793446 -126.362253101412392 0 15049.079786559406784 -53343158.555878736078739 0 -15048.828125677229764 53343185.81715390086174 0 -4719.683417877295142 -53374218.225026234984398 0 4719.742281479141639 53374190.933238208293915 0 -281545266431.9793701171875 66763713459.294967651367188 0 -42.967227270486291 -5773978.160730039700866 0 63.50284436756175 5773978.160849221050739 0 -3670499325143.587890625 -554799166906.53369140625 0 4556.493256196712537 -53373184.196403488516808 0 -4556.434136862992091 53373211.488016150891781 0 -1730.872058951243616 -53382559.414910778403282 0 1730.889770122528489 53382532.115224026143551 0 -22604.584145705717674 20.827904807555402 0 -74.826447007648994 -5777841.606081690639257 0 77.590618760199362 5777841.606358092278242 0 -22927.347505391313462 -20.703057184414725 0 1475.44379007506268 -53380615.059798635542393 0 -1475.425686970163952 53380642.359151393175125 0 -722.554064165062755 -53385425.806358605623245 0 722.560410282211251 53385398.50410071015358 0 22571.193017920893908 43.662239179886484 0 -110.46995688686367 -5776421.539527339860797 0 111.142429047932779 5776421.539834421128035 0 22891.337695829897712 -43.740151889220144 0 319.746957922225249 -53381729.476390480995178 0 -319.740012151547603 53381756.778031066060066 0 -340.059911945686395 -53386533.049838066101074 0 340.062503153834143 53386505.746647126972675 0 -152.807796653310419 27.341072705104239 0 -167.522134077149559 -5773371.496799854561687 0 167.737808646029919 5773371.49544074293226 0 -141.196099125176715 -28.057859893575053 0 -292.948595877298828 -53379493.66852205991745 0 292.952106000437311 53379520.970620021224022 0 -182.15073376607603 -53386945.297405913472176 0 182.151907417317403 53386917.993896022439003 0 281545266634.87060546875 -66763713391.55792236328125 0 -267.055316614456274 -5767639.912837166339159 0 267.200492523816479 5767639.883239915594459 0 3670499325336.3544921875 554799166838.023681640625 0 -791.725152119190284 -53373695.614686250686646 0 791.727760830283842 53373722.916398346424103 0 -112.799135668881618 -53387034.275976836681366 0 112.799716574262618 53387006.972420990467072 0 -3.62386192179191 32.472971932014453 0 -437.572586326255532 -5757327.781020984053612 0 438.662384092779462 5757326.9602887975052 0 -5.178206087161775 -32.328196080081838 0 -1317.059750839904382 -53362857.040311247110367 0 1317.06271324793056 53362884.341329380869865 0 -80.650794679794899 -53386953.657141149044037 0 80.651106966770854 53386926.353679716587067 0 0.386239676570498 29.369811113166076 0 -695.398446650548522 -5740150.392941048368812 0 693.454656802899308 5740155.617500063031912 0 -222.023760777682639 -34.298546482247026 0 -1858.997481379513374 -53345224.576093450188637 0 1859.002126687033979 53345251.877292349934578 0 -64.505765445952562 -53386779.065351858735085 0 64.505947282303808 53386751.762062788009644 0 149.56588803876042 -599.196535438190267 0 -964.373053424669138 -5714754.330715688876808 0 960.23127425457335 5714748.516557889059186 0 4631.949006636727972 -28.991802636668357 0 -2284.861411683369624 -53320391.711960025131702 0 2284.869448320990159 53320419.017363719642162 0 -54.976773743560258 -53386555.725648894906044 0 54.97688736000913 53386528.422571703791618 0 34025.643123999223462 37423.77355344715761 0 -1069.368959823859996 -5683310.303241675719619 0 1069.070361642252919 5683310.107105036266148 0 -296.449779124700626 -29.046609681922536 0 -2419.621090976908363 -53291025.089670531451702 0 2419.631763781068003 53291052.406755648553371 0 -47.762034915135771 -53386315.508603855967522 0 47.762109371537747 53386288.205749019980431 0 -155.569323695133079 662.60297286076343 0 -899.12639576767117 -5652755.611454678699374 0 899.428186184150377 5652755.593168769963086 0 -4415.381603606407225 -33.369827979069555 0 -2199.466904767748019 -53262442.632817953824997 0 2199.474260032056009 53262469.96171622723341 0 -40.960025828305419 -53386082.446709871292114 0 40.960075402379658 53386055.144064895808697 0 14.664935491908921 29.631474949670721 0 -563.15280349972636 -5629982.829334115609527 0 575.482630295517311 5629982.662889786064625 0 -981.399972999128522 1917.749965884309404 0 -1740.101306702094462 -53239447.167314268648624 0 1740.103703510472769 53239474.497266113758087 0 -33.868759247858776 -53385874.047320038080215 0 33.868791766401436 53385846.744856625795364 0 -67824715.896111786365509 300504739.484500765800476 0 -225779582.492727100849152 3318409.816403114702553 0 -226804070.835203468799591 -1920180.409649635432288 0 -123981515.681236505508423 -524861223.750990509986877 0 -1229.716607333819184 -53223723.334953472018242 0 1229.717298571259562 53223750.661122053861618 0 -26.365710362285579 -53385701.713570848107338 0 26.365730745580183 53385674.411252282559872 0 265289472747.886322021484375 146095795498.33929443359375 0 2229.420601116305079 -5609359.054198881611228 0 2490.860999187517336 5609351.860601771622896 0 -400267953.926358699798584 1432494.532228092197329 0 -795.278927527707538 -53214221.052829280495644 0 795.279388660263976 53214248.37615691870451 0 -18.553809367861728 -53385571.619020447134972 0 18.553820837480391 53385544.316807553172112 0 8.088214428545919 27.716167972990363 0 -64.745303565113275 -5605628.612224636599422 0 62.301762468905963 5605619.462356321513653 0 995.36145086953718 -1981.772807022289271 0 -471.732636795089263 -53208977.91976110637188 0 471.733017455544768 53209005.241606697440147 0 -10.565646023583183 -53385486.198596343398094 0 10.565648365895941 53385458.896452456712723 0 -265289472814.955780029296875 -146095795436.66741943359375 0 -30.264805148975032 -5603848.003028992563486 0 30.22784529188116 5603839.476980633102357 0 -380.806362058039895 653.732801528471441 0 -239.191777356674322 -53206344.900609120726585 0 239.192015412560721 53206372.221756808459759 0 -2.47789605746772 -53385445.837827824056149 0 2.473037638540529 53385418.539410538971424 0 -11463.395527897251668 -72602.044219545758097 0 -7.465180776131373 -5603146.519348679110408 0 7.658653574001454 5603138.091956742107868 0 344.556744998033196 571.26961103685403 0 -60.009131129468983 -53205317.499837681651115 0 60.009193771581188 53205344.820720940828323 0 5.698492681192611 -53385450.237789750099182 0 -5.693643016937477 53385422.93197426199913 0 38.428249279655482 229.164818456908932 0 14.679834842106132 -5603249.39255706127733 0 -12.345464990002627 5603240.953164182603359 0 -1010.397039985222591 -2000.072629888759366 0 105.063529507111255 -53205470.760591864585876 0 -105.0636486877235 53205498.081513687968254 0 13.996801733110651 -53385499.083972029387951 0 -13.996814580181248 53385471.78181330114603 0 11538.202531800823635 72641.062571807473432 0 -2324.197090379032034 -5604301.648814275860786 0 -2395.425650061163651 5604297.052121918648481 0 400267990.096760272979736 -1433849.052563563920557 0 294.681081229434824 -53206869.696376517415047 0 -294.681372035536242 53206897.017659053206444 0 22.460940362025163 -53385591.831935040652752 0 -22.460966328343833 53385564.529703207314014 0 67936061.717890501022339 300938679.360002875328064 0 225710631.322000443935394 3357473.355550769716501 0 226698721.782645523548126 -1854947.175893418490887 0 130261720.151357114315033 -549575903.755289793014526 0 548.185075180372792 -53210085.452809266746044 0 -548.18549608592275 53210112.774954810738564 0 31.161223424021735 -53385726.607346549630165 0 -31.161265752791611 53385699.305002681910992 0 -60.426602682519771 -170.970291233511375 0 157.179303403316624 -5610727.470861947163939 0 -170.918813311591009 5610717.783531224355102 0 996.49266491342064 1936.073142606695455 0 900.652424402416727 -53216299.085499718785286 0 -900.652927417121077 53216326.409436583518982 0 40.295923081689565 -53385898.357444874942303 0 -40.29599094277976 53385871.054952368140221 0 2.549954495582993 37.659728162184834 0 352.199959526452062 -5619284.249362960457802 0 -353.785688576409768 5619282.777568814344704 0 5276827711296599040 667824612051554816 0 1361.081354553584561 -53227306.599752247333527 0 -1361.082297341176172 53227333.926945924758911 0 50.46938503187399 -53386096.525513909757137 0 -50.469494499457802 53386069.22284246981144 0 -7563059821.846595764160156 -3540335493.466033935546875 0 662.153341117772698 -5635179.899444531649351 0 -662.303476145740888 5635179.826757248491049 0 298.51195198329151 -35.231461009683819 0 1871.022734250452231 -53244983.360029570758343 0 -1871.026237216530717 53245010.690572634339333 0 63.294645630044684 -53386302.443144559860229 0 -63.294826952956576 53386275.140278205275536 0 7563059826.123952865600586 3540335556.496907234191895 0 970.906475169089845 -5660451.173772867769003 0 -970.88018077351785 5660451.149662205949426 0 -40.095505057823473 -31.949591751582098 0 2277.530988545775926 -53269794.943451084196568 0 -2277.539910290764055 53269822.269973628222942 0 82.658354411431077 -53386485.995456084609032 0 -82.658669630187475 53386458.69240503013134 0 -34033.080636055427021 -37361.772080701455707 0 1066.351301662035894 -5692010.871296692639589 0 -1065.645786301214684 5692010.362232835032046 0 -5276827711296599040 -667824612051554816 0 2393.350807845283271 -53299105.666262730956078 0 -2393.361382961889831 53299132.979424372315407 0 117.530702872165875 -53386599.256474733352661 0 -117.531288785927288 53386571.953291520476341 0 -406.669714461906779 2004.636411776119985 0 895.633705176525154 -5722231.936177372932434 0 -894.137987760309443 5722227.988146750256419 0 5.355635935552069 -32.347855453545321 0 2140.970790286219199 -53327588.913639828562737 0 -2140.978143760441526 53327616.217063382267952 0 188.818400927866662 -53386560.218108892440796 0 -188.819580031814496 53386532.914917670190334 0 410.909982535593201 -1938.845230858357581 0 613.481237652820255 -5745283.594556302763522 0 -617.39630184844259 5745276.892001068219543 0 -3144718924673.15625 535993159321.4796142578125 0 1613.145564725756458 -53350371.972748085856438 0 -1613.150394725356136 53350399.273371778428555 0 347.774074800986398 -53386207.102083414793015 0 -347.776670796574933 53386179.799151293933392 0 1698.806789767339069 -359.059892353717373 0 382.332733522132344 -5760244.18986529391259 0 -383.018997595420615 5760243.880760562606156 0 147.705443335866505 -27.551965542875113 0 947.638800962939285 -53365612.007356092333794 0 -947.643451282700539 53365639.307922646403313 0 730.503846784946973 -53385160.507734142243862 0 -730.510196629316169 53385133.205677598714828 0 -16992.818871402912919 -209.418445506337662 0 233.561812255441737 -5769064.360798380337656 0 -234.270851560416531 5769064.347632602788508 0 -22561.928464603795874 -22.858059503937461 0 138.015973059893099 -53373994.985677450895309 0 -138.023587835954743 53374022.286148950457573 0 1738.439184498510485 -53382350.525470346212387 0 -1738.456898426450834 53382323.225935041904449 0 16985.548961561777105 273.195876324752248 0 147.322714182234392 -5773815.921789936721325 0 -150.09234326449382 5773815.92136837169528 0 22597.139124678178632 -41.619789511504962 0 -1178.373399030877636 -53376447.660927027463913 0 1178.35486878471238 53376474.959522426128387 0 4726.475655716863912 -53374058.163418620824814 0 -4726.53452136645501 53374030.871741533279419 0 -1707.530652707692298 417.661581967233019 0 88.850051323057883 -5771794.793917821720243 0 -109.386262817265305 5771794.79417185857892 0 3144718924475.5693359375 -535993159390.429443359375 0 -4370.8959371403962 -53370961.279780812561512 0 4370.836539245115091 53370988.570934280753136 0 15160.454456466071861 -53343598.211512431502342 0 -15160.705953298813256 53343570.95022739470005 0 -2077.869768182887128 126.423425258591635 0 -2806.381574242885108 -5717250.002320860512555 0 -2939.277990532154945 5717250.012666078284383 0 -2078.072604824115388 -126.202850098892526 0 -14934.74933988558405 -53341967.026920363306999 0 14934.497499410219461 53341994.287924334406853 0 61148.311423735322023 -53187620.434191077947617 0 -61149.973862399230711 53187593.345042943954468 0 2086.767220024131802 -62.158929851412033 0 2912.803529981806605 -5215127.177867501042783 0 2842.980327526928704 5215127.168155297636986 0 2086.973136838790197 61.936952111501412 0 -61004.83896162264864 -53186753.57391295582056 0 61003.17632180792134 53186780.662913203239441 0 341443.361765639740042 -51925342.954006567597389 0 -341507.787679721019231 51925316.914751604199409 0 -67936083.091851770877838 -300938633.903359055519104 0 -225701819.372462630271912 -12108580.780558455735445 0 -226702867.094918638467789 10606031.620932254940271 0 -130261740.705554977059364 549575839.980045318603516 0 -341413.376461027888581 -51924889.886571757495403 0 341348.950999309541658 51924915.925703853368759 0 1534322.38770496356301 -35585137.231775596737862 0 -37072101.779514893889427 37117043.758841007947922 0 -51833010.332507073879242 336912.932803518837318 0 -53057519.694818913936615 46151.7030586280016 0 -53057439.629472129046917 -46113.247273850021884 0 -51832767.680765420198441 -336870.968127548578195 0 -37071789.101972550153732 -37116878.606718949973583 0 1534287.872535164700821 35585006.540370777249336 0 1291.796639687188645 -1291.987605840002971 0 35536536.011855721473694 -1530663.103512746281922 0 51833036.271879479289055 -336848.464422395336442 0 53057546.647393338382244 -46150.28747469647351 0 53057466.581997118890285 46111.83170087270264 0 51832793.619962483644485 336806.499886104604229 0 35536257.850426472723484 1530628.643220561090857 0 1291.826542262731891 1291.987306321795813 0 -1290.80711424555966 -1300.332936007418539 0 -35536850.115670397877693 -1533199.691559995058924 0 -51843503.471131205558777 -341730.23807306936942 0 -53096034.394933432340622 -61642.317306194716366 0 -53246865.202345103025436 -15475.634939344794475 0 -53274342.961987420916557 -4807.564421550048792 0 -53280801.673458963632584 -1521.241078714938567 0 -53282111.208427965641022 -7.641613148731619 0 -53280783.758545555174351 1506.061709691620308 0 -53274305.871793918311596 4792.69362645727324 0 -53246806.402969531714916 15461.261150199656186 0 -53095950.181792050600052 61628.541766736365389 0 -51843390.917175807058811 341716.430792286409996 0 -35537991.171561494469643 1532110.964577795937657 0 -1291.513164036056878 1281.51520806808935 0 -1525522.651640726486221 -35420224.689456582069397 0 37063615.168131999671459 36954636.241283237934113 0 51843477.520063772797585 341774.596558017947245 0 53096007.402706809341908 61623.971305045815825 0 53246838.042429432272911 15455.882534038639278 0 53274315.774008214473724 4787.620538399425641 0 53280774.478973098099232 1501.255395943218673 0 53282084.012624427676201 -12.358815935830714 0 53280756.564094550907612 -1526.077051662126905 0 53274278.68388195335865 -4812.751374830075292 0 53246779.243198566138744 -15481.511891238820681 0 53095923.189857073128223 -61650.203387694426056 0 51843364.966424889862537 -341800.855419346364215 0 37071346.634022161364555 -37071235.636418089270592 0 -1532112.363950997125357 35537851.573658004403114 0 -340450.140599871054292 -51664296.310001641511917 0 340514.554939892783295 51664250.343409895896912 0 31.556036837808964 21.518796678272235 0 -57.440951987264455 -2067.593803206541907 0 121.627857324467172 2038.723262090443995 0 32.169880339008515 -4.78849196507111 0 4.336317760402725 -190779.557278311229311 0 87.724671535911824 -5853.711850283521926 0 4.533779722921195 196603.479082135017961 0 32.173357332547077 -15.482505936088677 0 123.392746071318584 -2094.469902688483216 0 -59.10893637435494 2089.296590267555075 0 33.613736918666909 -30.027300221997891 0 341789.042874715116341 -51843172.562834426760674 0 -341724.618122105952352 51843178.513454623520374 0 -61405.015158540496486 -52912180.787372536957264 0 61406.676405720565526 52912133.779460713267326 0 -2094.473314912419028 -69.200694005659571 0 -2578.881636499304477 -2542.853859221033417 0 -2629.861632143641145 2508.94746882921936 0 26398.641067206219304 59523.131530178623507 0 -22368.596601106044545 35467.676998517883476 0 -2534.890320463935041 -24.326727030082449 0 -31721.102108281105757 -58313.475450113444822 0 17031.984820255027444 -36703.037752303927846 0 -2629.877923797556377 -2573.719498989204567 0 -2581.728540471823635 2578.032375842290548 0 -2095.922304742266533 64.079380369405229 0 61639.260204705788055 -53095721.95508685708046 0 -61637.598639468662441 53095728.946885496377945 0 -15410.650842434501101 -53062468.309850767254829 0 15410.901446244355611 53062421.134165570139885 0 2085.504685726603384 113.314195918745583 0 2565.062649262195919 -2592.266590680088484 0 2636.952355642077237 2579.687878523978725 0 2633.611110650953378 -0.99216794398851 0 5061700.259669212624431 -27975118.080048482865095 0 -9760228.135495956987143 -2377319.983279590494931 0 4706428.929374887607992 30352408.072565861046314 0 2633.566244390609427 -19.064858283790446 0 2636.983513064112685 -2646.081281345693242 0 2564.37600974517818 2624.790590107011212 0 2084.451716099878013 -123.976264995218557 0 15470.426199706846091 -53246573.285655632615089 0 -15470.175554419020045 53246580.445286452770233 0 -4782.425114037248932 -53089859.242424823343754 0 4782.482689259142717 53089812.038622483611107 0 5.866956946576502 22.09504913772955 0 15118.885339515374653 4483.244423349012322 0 9.118823741632815 2576.163790282283571 0 5.042355271849719 -5.683785003881794 0 -674.417430979944584 -125688.52777256158879 0 1438.87338706444848 -2989.169232266160179 0 -756.428456612462128 128647.946821471647127 0 5.007771450267317 -14.622215006877758 0 9.111988844594197 -2642.667064980570558 0 103149.795409923477564 -84490.998422771634068 0 2.60848691217107 -32.962780386847868 0 4801.317794436943586 -53274067.718043565750122 0 -4801.260211537089162 53274074.905805572867393 0 -1508.426564521593718 -53096306.547740913927555 0 1508.441648661867475 53096259.337402611970901 0 -218017.031081565073691 0.371637818300851 0 13757.314676536454499 -9753.634882232197924 0 -30593669.831493444740772 4985839.011247680522501 0 -143234.188108759059105 -804.494067561987777 0 -159207.423895476706093 -139841.294733229588019 0 -161980.239258391782641 -3806.58817945154442 0 -158532.046089720708551 143585.79801174410386 0 -139991.178892252210062 641.191815824672403 0 -30055677.648762300610542 -5131392.007073481567204 0 -1139.357652396576214 2674.349470910034597 0 -133836.259984183619963 -1171.584381366508296 0 1514.192296133647687 -53280539.511124581098557 0 -1514.17720981863522 53280546.70542648434639 0 -0.644954327641162 -53097621.627665475010872 0 0.644952727922225 53097574.41599053889513 0 -88.88688114509776 98.024486639121733 0 -1.620570750055992 -2484.595413030560394 0 -25850.124177483437961 -9967847.741920763626695 0 -28.820769378391514 1588.071556715763109 0 -30.054633575454645 -142314.559372950898251 0 -87.99014704429095 -3656.412911232712304 0 -87.689419968838749 145836.382659219321795 0 2372.417575491806019 -2214.759382291915244 0 10847978.375545660033822 6969243.166482503525913 0 1016.44723797323627 2576.570721111010243 0 131171.951678633951815 409.657271713371529 0 -0.073631344301807 -53281859.278770968317986 0 0.073631311233126 53281866.474410235881805 0 1507.04813236516793 -53096308.088684469461441 0 -1507.063219895524526 53096260.878345668315887 0 218105.713020192808472 -33.034448952183453 0 -13662.668112013072459 -9744.590357026838319 0 30619519.95624291151762 4989737.523756228387356 0 143263.011682284879498 -809.063684746645777 0 159224.610310383432079 -139581.027860398695339 0 162003.279133079398889 -2528.13354233265818 0 158697.574067592737265 142217.090865219477564 0 137618.763537816295866 1537.644802189197435 0 19207699.297048043459654 -1845779.401139195077121 0 -103019.671492943933117 89775.027265100696241 0 2670.233248841752811 660.433804860907685 0 -1514.341567136217236 -53280539.90247792750597 0 1514.326480754584736 53280547.096779987215996 0 4780.764653753155471 -53089862.741757646203041 0 -4780.822232975540828 53089815.537954121828079 0 -10.317857085811122 18.350076894513588 0 -15211.911572992743459 4493.227819687697774 0 -9.118709456340008 2576.163973786320184 0 -5.043460575232156 -5.696460212418279 0 673.49955711785492 -125352.008961667292169 0 -1426.79787884417965 -845.976227085990786 0 745.264942397185223 126168.108156704285648 0 -5.015207234803761 -14.477534177830474 0 -8.945465153495018 -2642.30155411603937 0 -4.445472828207874 2637.388772124834759 0 -7.275950435632311 -28.802748630224606 0 -4801.473089602142863 -53274068.519516088068485 0 4801.415506635237762 53274075.707278601825237 0 15408.462644602084765 -53062474.731980502605438 0 -15408.713253623292985 53062427.556293159723282 0 -2085.514342256367854 113.312560691105816 0 -2565.074688752417842 -2592.267919409684509 0 -2693.582155204187075 2580.611874592016193 0 -2633.616442129966345 -0.992992456160535 0 -5072241.526556771248579 -27815334.614439196884632 0 9683567.131065359339118 -2015606.658986928407103 0 -4619226.66783213801682 29830911.273852452635765 0 -2633.57689088703637 -19.038647128403536 0 -2637.179425880281087 -2645.622500450288044 0 -2566.845233509009631 2629.230403054665203 0 -2087.071249274269121 -121.350537308749423 0 -15470.591596689375365 -53246574.534483671188354 0 15470.340951333026169 53246581.694115251302719 0 61401.964878649072489 -52912191.94655941426754 0 -61403.626134026257205 52912144.938644267618656 0 2094.482929275715378 -69.198839664899154 0 2578.891558370594794 -2542.854613198930565 0 2629.870040739258911 2508.949188774719914 0 -26679.193214302169508 60686.453316385479411 0 20091.968868297659355 30629.239478759685881 0 2535.047819947049902 -29.811048349651031 0 32000.500903250896954 -59471.191871801849629 0 -14754.36028902155158 -31864.728175521544472 0 2629.618039650494666 -2573.919209238131771 0 2577.688962921295115 2575.056035983977381 0 2093.686518418559899 59.248244624105482 0 -61639.440480358396599 -53095723.702393725514412 0 61637.778915037313709 53095730.694193318486214 0 340445.909654156537727 -51664315.303807497024536 0 -340510.324059691280127 51664269.337212219834328 0 -31.556025082436175 21.518771438770159 0 57.435608618370303 -2067.595119131926822 0 -121.622502825365956 2038.724536321871483 0 -32.169832811446724 -4.788841404077087 0 -6.279595255607235 -190745.606266909337137 0 -90.825199799615945 -5851.66643821199159 0 0.51013512246975 196567.482812370551983 0 -32.173355302203547 -15.482267013231773 0 -123.3925008145155 -2094.469304744323381 0 59.165224882594963 2089.427559579805347 0 -26.222499845720762 -39.884014483143957 0 -341789.249091337667778 -51843174.81821047514677 0 341724.824337990023196 51843180.768832109868526 0 1525520.286486700642854 -35420249.083571083843708 0 -37063687.768427051603794 36954661.092925518751144 0 -51843553.480027556419373 341769.408208413748071 0 -53096060.259013473987579 61619.520116437517572 0 -53246873.775372914969921 15452.454984055149907 0 -53274339.686090089380741 4785.034743620307381 0 -53280790.370739281177521 1499.319504711637364 0 -53282094.516297467052937 -13.803439772670679 0 -53280763.472805336117744 -1527.154415933513064 0 -53274283.205509506165981 -4813.555935079910341 0 -53246782.184115424752235 -15482.114491623784488 0 -53095925.080520525574684 -61650.656552264154016 0 -51843366.121552616357803 -341801.195370149915107 0 -37071347.238058730959892 -37071237.61823782324791 0 1532112.558403872419149 35537853.427932016551495 0 1290.809069061009268 -1300.334631072545108 0 35536925.079236716032028 -1533200.147428931668401 0 51843579.431110352277756 -341725.049692299333401 0 53096087.251252703368664 -61637.866112974254065 0 53246900.935296595096588 -15472.207393071508704 0 53274366.874081194400787 -4804.97861360816205 0 53280817.565225318074226 -1519.305180997807383 0 53282121.712103322148323 -6.196987386048223 0 53280790.667261213064194 1507.139079639056035 0 53274310.39341613650322 4793.498198247890286 0 53246809.343887455761433 15461.863744388190753 0 53095952.072455838322639 61628.994931901041127 0 51843392.072303891181946 341716.770740713691339 0 35537991.581141963601112 1532111.092115875566378 0 1291.516348778265638 1281.515847784993639 0</DataArray>